<?xml version="1.0"?>
<VTKFile type="UnstructuredGrid"  version="0.1"  >
<UnstructuredGrid>
<Piece  NumberOfPoints="3" NumberOfCells="1">
<Points>
<DataArray  type="Float64"  NumberOfComponents="3"  format="ascii">0 0 0  1 0 0  0 1 0  </DataArray>
</Points>
<Cells>
<DataArray  type="UInt32"  Name="connectivity"  format="ascii">0 1 2  </DataArray>
<DataArray  type="UInt32"  Name="offsets"  format="ascii">3 </DataArray>
<DataArray  type="UInt8"  Name="types"  format="ascii">5 </DataArray>
</Cells>
<PointData  Scalars="u"> 
<DataArray  type="Float64"  Name="u"  format="ascii">-2.0000000000000001e-01  -1.7433653260740611e+00  -2.0000000000000001e-01  </DataArray> 
</PointData> 
</Piece>
</UnstructuredGrid>
</VTKFile>